 Gaussian 09, Revision D.01,
 Gaussian 09:  ES64L-G09RevD.01 24-Apr-2013

 -----------------------------------------------
 #b3lyp/cc-pVTZ pop=chelpg iop(6/33=2) scf=tight
 -----------------------------------------------

 -------------------
 Title Card Required
 -------------------
 Symbolic Z-matrix:
 Charge = -2 Multiplicity = 1

                         Standard orientation:
 ---------------------------------------------------------------------
 Center     Atomic      Atomic             Coordinates (Angstroms)
 Number     Number       Type             X           Y           Z
 ---------------------------------------------------------------------
      1          6           0        0.240316   -2.399320   -1.294912
      2          1           0        0.049115   -3.453474   -1.468075
      3          1           0        0.246957   -1.893370   -2.254226
      4          1           0        1.207407   -2.286050   -0.828890
      5          8           0       -0.802381   -1.901042   -0.500617
      6          6           0       -0.547002   -1.100385    0.620728
      7          1           0       -0.554196   -1.734301    1.498660
      8          6           0       -1.667348   -0.044689    0.765590
      9          1           0       -1.546260    0.390943    1.753768
     10          7           0       -2.930192   -0.782451    0.746720
     11          1           0       -2.789125   -1.668967    0.308016
     12         16           0       -4.409364   -0.265073    0.085999
     13          8           0       -4.145209    0.223365   -1.255794
     14          8           0       -4.927175    0.735051    0.991687
     15          8           0       -5.137726   -1.522121    0.094940
     16          6           0       -1.458617    1.114495   -0.221391
     17          1           0       -1.656369    0.798567   -1.237387
     18          8           0       -2.295845    2.183377    0.124243
     19          1           0       -1.841238    2.984615   -0.088448
     20          6           0       -0.009635    1.590340   -0.089611
     21          1           0        0.130033    1.938366    0.931941
     22          8           0        0.199445    2.673723   -0.983911
     23          1           0        0.530235    3.418700   -0.506752
     24          6           0        0.982025    0.470129   -0.338915
     25          1           0        0.850503    0.096067   -1.347758
     26          8           0        0.717610   -0.536307    0.609866
     27          6           0        2.424167    0.911521   -0.169015
     28          1           0        2.618566    1.767260   -0.802620
     29          1           0        2.585937    1.188524    0.865115
     30          8           0        3.279514   -0.140317   -0.530168
     31         16           0        4.725404   -0.212984    0.221804
     32          8           0        5.330622   -1.351091   -0.417828
     33          8           0        4.417884   -0.385346    1.621822
     34          8           0        5.343222    1.061537   -0.080499
 ---------------------------------------------------------------------

 SCF Done:  E(RB3LYP) =  -1953.64629098     A.U. after   13 cycles

 The electronic state is 1-A.
 Alpha  occ. eigenvalues --  -88.85807 -88.82996 -18.96995 -18.95397 -18.94666
 Alpha  occ. eigenvalues --  -18.92639 -18.92310 -18.85537 -18.85302 -18.85226
 Alpha  occ. eigenvalues --  -18.83043 -18.82996 -18.82945 -14.08286 -10.08700
 Alpha  occ. eigenvalues --  -10.04633 -10.03921 -10.03228 -10.02432 -10.02226
 Alpha  occ. eigenvalues --  -10.00934  -7.87590  -7.84826  -5.84210  -5.83862
 Alpha  occ. eigenvalues --   -5.83854  -5.81364  -5.81140  -5.81120  -0.91429
 Alpha  occ. eigenvalues --   -0.90224  -0.87659  -0.86768  -0.83653  -0.83212
 Alpha  occ. eigenvalues --   -0.80352  -0.74889  -0.74387  -0.72193  -0.71883
 Alpha  occ. eigenvalues --   -0.68013  -0.60737  -0.57457  -0.53194  -0.49066
 Alpha  occ. eigenvalues --   -0.45226  -0.43286  -0.39784  -0.37213  -0.36212
 Alpha  occ. eigenvalues --   -0.35066  -0.33838  -0.32235  -0.31538  -0.29841
 Alpha  occ. eigenvalues --   -0.28316  -0.27048  -0.26858  -0.26052  -0.25003
 Alpha  occ. eigenvalues --   -0.24361  -0.23990  -0.22933  -0.22337  -0.21385
 Alpha  occ. eigenvalues --   -0.20372  -0.20025  -0.18877  -0.18306  -0.17136
 Alpha  occ. eigenvalues --   -0.16995  -0.16068  -0.15389  -0.14132  -0.12306
 Alpha  occ. eigenvalues --   -0.10743  -0.10555  -0.10066  -0.10018  -0.09396
 Alpha  occ. eigenvalues --   -0.08652  -0.08263  -0.08144  -0.07671  -0.06706
 Alpha  occ. eigenvalues --   -0.05930  -0.05195  -0.04196  -0.03883  -0.02021
 Alpha  occ. eigenvalues --   -0.00430   0.00314
 Alpha virt. eigenvalues --    0.17764   0.21987   0.23484   0.25382   0.25896
 Alpha virt. eigenvalues --    0.26760   0.27589   0.28589   0.29862   0.30230
 Alpha virt. eigenvalues --    0.31092   0.32520   0.32583   0.33069   0.33619

 Mulliken charges:
               1
     1  C   -0.114291
     2  H    0.059338
     3  H    0.060364
     4  H    0.120062
     5  O   -0.325526
     6  C    0.222418
     7  H    0.072446
     8  C    0.028534
     9  H    0.066742
    10  N   -0.324164
    11  H    0.092071
    12  S    0.918538
    13  O   -0.572717
    14  O   -0.569269
    15  O   -0.588008
    16  C    0.143605
    17  H    0.074915
    18  O   -0.311054
    19  H    0.147603
    20  C    0.005273
    21  H    0.037434
    22  O   -0.360494
    23  H    0.189088
    24  C    0.169024
    25  H    0.056417
    26  O   -0.311300
    27  C    0.046030
    28  H    0.055289
    29  H    0.041248
    30  O   -0.370305
    31  S    0.936053
    32  O   -0.552740
    33  O   -0.562635
    34  O   -0.579990
 Sum of Mulliken charges =  -2.00000

 Dipole moment (field-independent basis, Debye):
    X=              1.5698    Y=              3.2096    Z=             -1.1484  Tot=              3.7530
 Quadrupole moment (field-independent basis, Debye-Ang):
   XX=           -384.0486   YY=           -146.6395   ZZ=           -154.4110
   XY=              3.1012   XZ=             -2.7718   YZ=              2.7709

 ESP charges:
               1
     1  C    0.082157
     2  H    0.006251
     3  H   -0.006986
     4  H    0.064266
     5  O   -0.288130
     6  C    0.164760
     7  H    0.069701
     8  C    0.242478
     9  H   -0.015379
    10  N   -0.694895
    11  H    0.244288
    12  S    1.275532
    13  O   -0.690921
    14  O   -0.658426
    15  O   -0.693719
    16  C    0.499385
    17  H   -0.009250
    18  O   -0.587998
    19  H    0.314685
    20  C    0.017241
    21  H   -0.017052
    22  O   -0.652346
    23  H    0.400635
    24  C    0.256685
    25  H    0.042225
    26  O   -0.396221
    27  C    0.208093
    28  H   -0.003188
    29  H    0.013515
    30  O   -0.461827
    31  S    1.300230
    32  O   -0.666359
    33  O   -0.665993
    34  O   -0.693439
 Sum of ESP charges =  -2.00000

 Normal termination of Gaussian 09 at Fri Feb 21 10:32:36 2020.
