 Gaussian 16, Revision C.01,
 Gaussian 16:  ES64L-G16RevC.01  3-Jul-2019

 ----------------------------------------------------------------
 #HF/6-31+G* pop=chelpg iop(6/33=2) geom=(connectivity) scf=tight
 ----------------------------------------------------------------

 -------------------------------------------------
 ESP calculation of the optimized ligand structure
 -------------------------------------------------
 Symbolic Z-matrix:
 Charge = -1 Multiplicity = 1

                         Standard orientation:
 ---------------------------------------------------------------------
 Center     Atomic      Atomic             Coordinates (Angstroms)
 Number     Number       Type             X           Y           Z
 ---------------------------------------------------------------------
      1          6           0       -1.960877    3.983073    1.124971
      2          8           0       -3.200387    3.316131    1.197640
      3          6           0       -3.373646    3.080320   -1.207039
      4          6           0       -3.508640    2.402354    0.201001
      5          6           0       -4.923360    1.917144    0.488409
      6          6           0       -5.260192    0.682978   -0.328409
      7          6           0       -4.219877   -0.417491   -0.093246
      8          6           0       -2.814539    0.142567   -0.385419
      9          6           0       -1.609859   -0.756402   -0.056837
     10          6           0       -1.531851   -1.242978    1.401044
     11          6           0       -0.382874   -2.214556    1.659417
     12          6           0       -4.683102   -2.821264   -0.457743
     13          6           0       -4.793948   -3.903773   -1.504518
     14          7           0       -4.535142   -1.566511   -0.921975
     15          8           0       -2.440290    2.726800   -1.931777
     16          8           0       -4.228497    3.941721   -1.446653
     17          8           0       -6.543058    0.255579    0.056084
     18          8           0       -2.616127    1.323754    0.365392
     19          8           0       -1.639948   -1.847661   -0.939372
     20          8           0       -1.364026   -0.171545    2.301154
     21          8           0       -4.729395   -3.088612    0.726093
     22          1           0       -1.883906    4.576358    2.024580
     23          1           0       -1.917891    4.640100    0.264000
     24          1           0       -1.137633    3.282079    1.085635
     25          1           0       -5.632688    2.706076    0.286466
     26          1           0       -4.976963    1.667959    1.543453
     27          1           0       -5.273577    0.933953   -1.387556
     28          1           0       -4.296161   -0.732104    0.936267
     29          1           0       -2.740792    0.372670   -1.440197
     30          1           0       -0.736246   -0.143466   -0.256331
     31          1           0       -2.441731   -1.784910    1.638247
     32          1           0       -0.508539   -3.113384    1.076003
     33          1           0       -0.418570   -2.493083    2.704199
     34          1           0       -3.838503   -4.414066   -1.566204
     35          1           0       -5.046090   -3.521684   -2.485031
     36          1           0       -5.540949   -4.621640   -1.192925
     37          1           0       -4.392657   -1.465892   -1.903610
     38          1           0       -6.792135   -0.499390   -0.463270
     39          1           0       -0.754141   -2.190964   -1.028630
     40          1           0       -1.851277    0.584759    1.991743
     41          7           0        0.939313   -1.665963    1.405026
     42          6           0        1.612671   -1.840005    0.265358
     43          8           0        1.140948   -2.451317   -0.682307
     44          6           0        2.991789   -1.258842    0.182436
     45          6           0        3.374504   -0.118166    0.880299
     46          6           0        4.659155    0.385686    0.752285
     47          6           0        3.917051   -1.878431   -0.651582
     48          6           0        5.203969   -1.382818   -0.766298
     49          6           0        5.596651   -0.240840   -0.066895
     50          6           0        6.981518    0.297794   -0.197303
     51          6           0        7.204102    1.666918   -0.344140
     52          6           0        8.083146   -0.557503   -0.175601
     53          6           0        8.492618    2.167083   -0.466935
     54          6           0        9.372086   -0.057748   -0.295495
     55          6           0        9.581784    1.306675   -0.442356
     56          1           0        1.390654   -1.206273    2.162370
     57          1           0        2.679515    0.403928    1.512252
     58          1           0        4.931598    1.265017    1.306479
     59          1           0        3.626878   -2.747709   -1.210485
     60          1           0        5.899072   -1.876512   -1.420488
     61          1           0        6.370075    2.344438   -0.380840
     62          1           0        7.937577   -1.615072   -0.047511
     63          1           0        8.643161    3.225096   -0.587045
     64          1           0       10.208921   -0.732651   -0.268832
     65          1           0       10.580359    1.694233   -0.536560
 ---------------------------------------------------------------------

 SCF Done:  E(RHF) =  -1746.39068812     A.U. after   17 cycles

 The electronic state is 1-A.
 Alpha  occ. eigenvalues --  -20.47134 -20.46794 -20.46555 -20.46406 -20.45962
 Alpha  occ. eigenvalues --  -20.45055 -20.44090 -20.34016 -20.33520 -15.53039
 Alpha  occ. eigenvalues --  -15.50223 -11.29917 -11.26776 -11.21061 -11.20979
 Alpha  occ. eigenvalues --  -11.20762 -11.20185 -11.20093 -11.20032 -11.19965
 Alpha  occ. eigenvalues --  -11.19917 -11.19859 -11.19801 -11.19432 -11.19367
 Alpha  occ. eigenvalues --  -11.19239 -11.18789 -11.18667 -11.18419 -11.18009
 Alpha  occ. eigenvalues --  -11.17655 -11.16970 -11.16584 -11.15632 -11.15162
 Alpha  occ. eigenvalues --  -11.09746  -1.33322  -1.31815  -1.30155  -1.28145
 Alpha  occ. eigenvalues --   -1.27319  -1.26676  -1.23967  -1.21694  -1.17741
 Alpha  occ. eigenvalues --   -1.15152  -1.13542  -1.11242  -1.10913  -1.02332
 Alpha  occ. eigenvalues --   -0.98488  -0.97666  -0.97216  -0.96430  -0.95071
 Alpha  occ. eigenvalues --   -0.93355  -0.91405  -0.86235  -0.82987  -0.81892
 Alpha  occ. eigenvalues --   -0.80623  -0.78484  -0.77713  -0.75893  -0.74749
 Alpha  occ. eigenvalues --   -0.73049  -0.71858  -0.70916  -0.69608  -0.68988
 Alpha  occ. eigenvalues --   -0.67140  -0.63806  -0.62616  -0.62450  -0.62063
 Alpha  occ. eigenvalues --   -0.60991  -0.59884  -0.59146  -0.58307  -0.58037
 Alpha  occ. eigenvalues --   -0.57969  -0.57733  -0.57061  -0.56762  -0.55538
 Alpha  occ. eigenvalues --   -0.54718  -0.54414  -0.54309  -0.53280  -0.53177
 Alpha  occ. eigenvalues --   -0.52205  -0.51817  -0.50758  -0.50435  -0.49828
 Alpha  occ. eigenvalues --   -0.49099  -0.48595  -0.48397  -0.47817  -0.47100
 Alpha  occ. eigenvalues --   -0.46686  -0.46475  -0.46244  -0.45394  -0.44985
 Alpha  occ. eigenvalues --   -0.44751  -0.44620  -0.44494  -0.44013  -0.43680
 Alpha  occ. eigenvalues --   -0.42682  -0.41368  -0.40378  -0.39103  -0.37990
 Alpha  occ. eigenvalues --   -0.37745  -0.37507  -0.37177  -0.36006  -0.34715
 Alpha  occ. eigenvalues --   -0.34397  -0.33398  -0.32974  -0.32451  -0.32293
 Alpha  occ. eigenvalues --   -0.31437  -0.30002  -0.29441  -0.28429  -0.26413
 Alpha  occ. eigenvalues --   -0.24139  -0.22550  -0.22317
 Alpha virt. eigenvalues --    0.10563   0.12055   0.12365   0.12492   0.13530
 Alpha virt. eigenvalues --    0.13799   0.14163   0.14500   0.14745   0.15144
 Alpha virt. eigenvalues --    0.15374   0.15884   0.16102   0.16477   0.16640

 Mulliken charges:
               1
     1  C   -0.193017
     2  O   -0.369451
     3  C    0.779103
     4  C   -0.045171
     5  C   -0.477010
     6  C    0.270528
     7  C    0.037792
     8  C   -0.703401
     9  C   -0.116266
    10  C    0.204224
    11  C   -0.200665
    12  C    0.502415
    13  C   -0.710510
    14  N   -0.720726
    15  O   -0.660646
    16  O   -0.655522
    17  O   -0.669050
    18  O   -0.407786
    19  O   -0.801608
    20  O   -0.833703
    21  O   -0.560058
    22  H    0.164120
    23  H    0.210359
    24  H    0.176427
    25  H    0.274933
    26  H    0.226203
    27  H    0.207414
    28  H    0.280884
    29  H    0.274732
    30  H    0.222977
    31  H    0.224740
    32  H    0.244799
    33  H    0.210685
    34  H    0.236381
    35  H    0.191125
    36  H    0.225739
    37  H    0.477501
    38  H    0.512734
    39  H    0.664169
    40  H    0.654953
    41  N   -0.589730
    42  C   -0.323585
    43  O   -0.633085
    44  C    1.078577
    45  C   -0.607997
    46  C   -0.529921
    47  C   -0.386406
    48  C   -0.413189
    49  C    0.502346
    50  C    0.606879
    51  C   -0.358930
    52  C   -0.320356
    53  C   -0.383831
    54  C   -0.365667
    55  C   -0.267345
    56  H    0.462391
    57  H    0.256963
    58  H    0.239191
    59  H    0.272657
    60  H    0.237697
    61  H    0.244921
    62  H    0.236605
    63  H    0.233476
    64  H    0.229185
    65  H    0.228806
 Sum of Mulliken charges =  -1.00000

 Dipole moment (field-independent basis, Debye):
    X=             18.8950    Y=            -10.5523    Z=              3.3493  Tot=             21.8995
 Quadrupole moment (field-independent basis, Debye-Ang):
   XX=           -281.2071   YY=           -270.3227   ZZ=           -237.9759
   XY=             48.9210   XZ=              5.8609   YZ=             29.9273

 ESP charges:
               1
     1  C    0.268719
     2  O   -0.491656
     3  C    1.053138
     4  C    0.348659
     5  C   -0.305110
     6  C    0.461964
     7  C    0.417496
     8  C   -0.027455
     9  C    0.539044
    10  C    0.246130
    11  C    0.335470
    12  C    0.989432
    13  C   -0.411250
    14  N   -0.880488
    15  O   -0.894053
    16  O   -0.894718
    17  O   -0.750854
    18  O   -0.437413
    19  O   -0.849277
    20  O   -0.740353
    21  O   -0.751841
    22  H   -0.013527
    23  H    0.000101
    24  H   -0.029961
    25  H    0.130824
    26  H    0.067689
    27  H   -0.057133
    28  H    0.036043
    29  H    0.085668
    30  H   -0.045978
    31  H   -0.005588
    32  H   -0.034896
    33  H    0.014602
    34  H    0.126987
    35  H    0.084045
    36  H    0.088326
    37  H    0.361333
    38  H    0.391513
    39  H    0.489196
    40  H    0.419635
    41  N   -0.774233
    42  C    0.822177
    43  O   -0.675681
    44  C   -0.104392
    45  C   -0.102819
    46  C   -0.124541
    47  C   -0.085694
    48  C   -0.121730
    49  C    0.063251
    50  C    0.064096
    51  C   -0.120526
    52  C   -0.107716
    53  C   -0.098949
    54  C   -0.105977
    55  C   -0.119716
    56  H    0.329495
    57  H    0.141593
    58  H    0.080620
    59  H    0.112524
    60  H    0.099295
    61  H    0.115776
    62  H    0.076855
    63  H    0.099173
    64  H    0.104378
    65  H    0.098277
 Sum of ESP charges =  -1.00000

 Normal termination of Gaussian 16 at Fri Sep 16 02:13:31 2022.
